LAMMPS data file via write_data, version 12 Dec 2018, timestep = 4800

4320 atoms
2 atom types

0.0000000000000000e+00 1.9309999999999999e+01 xlo xhi
0.0000000000000000e+00 1.9309999999999999e+01 ylo yhi
0.0000000000000000e+00 9.6549999999999994e+00 zlo zhi
1.9310000000000827e-02 0.0000000000000000e+00 0.0000000000000000e+00 xy xz yz

Masses

1 1
2 1

Pair Coeffs # lj/cut

1 1 1
2 0.5 0.88

Atoms # atomic

2893 1 8.7211865431568736e-01 9.1461588445710040e-01 7.0229181063349511e-01 1 1 0
3852 2 1.4013897751372437e+00 4.6082250188851637e-01 1.2502914685260369e+00 1 1 1
137 1 3.6346418433813471e-01 1.4555985047882340e+00 1.4451146828696393e+00 0 0 1
1180 1 4.7145935492607620e+00 3.3826805288032729e+00 3.5360583407483236e-02 0 0 1
3550 2 3.5710808758942365e+00 2.4253555220016852e-02 1.6962834437598291e+00 -1 1 0
2855 1 3.0995593622932049e+00 9.1916208214994128e+00 4.7338243423881385e+00 1 0 0
579 1 9.6504250954797204e+00 4.7814422185890857e+00 9.2797216709682084e-01 -1 0 0
496 1 1.7166396024201802e+00 1.5102269145169700e+00 1.0947618751831782e+00 0 0 0
823 1 2.2630786068056694e+00 6.0040769101783109e-01 8.8535981191063462e-01 0 1 0
1207 1 1.9159577648895179e+00 7.8549704495461583e+00 3.0367897195707133e-01 0 0 1
2169 1 3.5296488507210384e+00 8.5870890419319110e+00 1.0738389133120529e-02 0 0 1
278 1 2.9942696843526861e+00 9.3900093016073316e-01 1.4776622759431262e+00 0 1 0
1737 1 3.2108942669134852e+00 8.7912486724589600e-01 4.0897541927579767e-01 1 1 0
884 1 4.0293571694357055e+00 5.8513959006227156e-01 1.1716598908783924e+00 0 1 0
1931 1 4.2884122845516295e+00 1.2367926142912280e+00 4.4713743715208021e-01 0 1 1
3588 2 3.5703645513879763e+00 1.4920134442568029e+00 9.9138862303080755e-01 0 0 1
2646 1 7.6852270005102286e+00 8.9543981753960011e+00 4.7777342317069129e+00 0 0 0
1908 1 2.9639811734276127e+00 1.3465709483619426e+00 4.7958370743494605e+00 0 1 1
587 1 5.3141737001638241e+00 8.3599002950408519e-01 6.5039952286294334e-01 0 0 0
3541 2 6.1790990096482252e+00 7.6272596389699188e-01 9.6688571119292777e-01 0 0 0
40 1 6.0062510341184190e+00 1.9072817568082454e-01 1.6323055213827597e+00 0 0 0
1877 1 9.6516680426355101e+00 2.6461105592154843e+00 4.1508124647301745e+00 0 1 0
2277 1 7.3397649339698754e+00 1.3082225327758596e+00 7.7012496389988205e-01 0 1 -1
2370 1 7.8126779525946226e+00 5.9758220311971444e-01 1.5349351815414574e+00 0 1 1
467 1 7.0011072479573464e+00 3.3014251403867895e-01 9.7385652928413191e-01 0 1 0
4158 2 7.2691842322244717e+00 6.4006535162652767e-01 1.3430688845398506e-01 0 0 0
1410 1 6.4711523410795087e+00 1.0383562863022104e+00 2.1007499451436909e-01 0 1 1
3846 2 8.2341273913837494e+00 1.3655091303249696e+00 1.1678065716100734e+00 0 0 0
2125 1 8.2250100868215590e+00 8.1325063392362207e-01 3.9378136016841614e-01 0 0 1
2730 1 8.9128748637659125e+00 8.8171398554297031e-01 1.1332821386456899e+00 0 1 0
2201 1 9.3826699237899582e+00 5.5786890950371837e-01 3.0848377623907336e-01 0 0 1
2193 1 9.0013353144196184e+00 1.5979850961816298e+00 2.2240056081649368e-01 0 0 0
2003 1 9.4242215192406800e+00 8.7384498204429555e+00 3.2179833550273202e+00 0 0 -1
2190 1 1.0121815628987032e+00 2.2171206039158244e+00 1.2294472968081052e+00 1 0 2
2963 1 2.7814688820607453e-01 2.4367425074910001e+00 4.2848118410230657e-01 1 0 0
533 1 1.2020300267831039e+00 3.1467441243124261e+00 7.9190209561431013e-01 0 0 0
946 1 1.6864353135209971e+00 2.3219302897235283e+00 4.3131347510498735e-01 0 1 1
91 1 2.0411771921791835e+00 2.5656328109973736e+00 1.3505509847372814e+00 0 0 0
1865 1 2.7155404606786755e+00 1.8298207378041054e+00 8.7973897250458333e-01 0 1 0
3481 2 1.9473356079876538e+00 3.3812446694388267e+00 1.2259962348005649e+00 0 0 0
3236 1 2.6697051265523544e+00 2.7420452376672579e+00 3.4682095032946331e-01 1 1 1
3600 2 3.3201191353055410e+00 2.6012627010921885e+00 9.2525974628893570e-01 0 0 1
643 1 4.1003766327363627e+00 2.2104939591092729e+00 1.0048129525190872e+00 0 0 1
1181 1 3.7579835542944475e+00 3.0805937825737133e+00 4.4029518268503515e-01 0 0 1
139 1 3.8934148053071409e+00 3.1165502814782897e+00 1.4732875508564300e+00 0 0 0
1756 1 9.3526072750373714e+00 9.6038065691044086e+00 3.9790295052682447e+00 0 0 -2
3637 2 4.5177539175810866e+00 2.4055989833970250e+00 1.6924790563619267e+00 1 1 -1
3935 2 4.6107418662075270e+00 2.9501270017386205e+00 9.1514741560575286e-01 0 1 -2
123 1 3.8432164318571438e+00 4.0982543384374939e+00 7.4570600987092672e-02 0 0 1
1806 1 4.9573455241886624e+00 1.6890680521195085e+00 1.1333262119110425e+00 0 1 0
799 1 5.2669512599982866e+00 2.5392518927674756e+00 5.9952585723903618e-01 0 1 0
3343 1 6.0483021060276823e+00 1.7680496749644927e+00 8.4060403714651399e-01 1 1 0
3232 1 6.2693570576886879e+00 2.8753610554461817e+00 6.9765986684376191e-01 1 1 0
1302 1 3.1418167874936778e+00 2.3640682160415181e+00 4.7464956940929603e+00 0 1 0
2960 1 5.6339625694136721e+00 2.5365588856067482e+00 1.5705532304405350e+00 1 0 0
3992 2 7.5922975597325495e+00 2.1772203466166204e+00 1.0922392370039473e+00 0 0 1
109 1 6.9683431539376448e+00 2.1996841950153456e+00 3.4985203592389008e-01 0 0 0
569 1 8.0785314190000594e+00 2.0481599890510869e+00 3.4886209365786314e-01 0 0 1
1000 1 7.2774271358815303e+00 3.1519649455046310e+00 1.0159426358079275e+00 0 0 0
1108 1 8.5671357152744445e+00 2.0821485161949589e+00 1.3266673402777847e+00 0 0 1
3636 2 7.8480646316173379e+00 6.5231599040829451e+00 4.8103606452863152e+00 -1 0 1
3534 2 8.9658717177006189e+00 2.3609683959173902e+00 5.5788786251466360e-01 -1 1 2
667 1 9.4957664053541091e+00 3.0027392729847757e+00 6.1027503788047288e-01 0 0 0
920 1 8.4022897325628261e+00 3.0453598795843915e+00 7.8498078991405773e-01 0 1 0
3417 1 3.4375699928034226e-01 3.2706335319489979e+00 1.6503997901912919e+00 1 1 1
3563 2 4.4099149229653745e-01 3.5935363384360306e+00 9.0795606618866653e-01 -1 0 0
183 1 1.0582251990969764e+00 3.9903135696955845e+00 1.3824012055168720e+00 0 0 1
1270 1 1.0925174684905197e+00 4.1062975495815035e+00 2.5616832272544576e-01 0 1 0
4103 2 5.6890161523681848e-01 4.5896558892463473e+00 9.5528994755732533e-01 0 -1 -2
368 1 1.9657091821751591e+00 4.1116988375918107e+00 7.9123552658075147e-01 0 1 1
3827 2 1.7314102317847799e+00 4.5963959452893581e+00 1.5493789249645722e+00 0 0 2
4255 2 2.6796995480236934e+00 4.2469447165101704e+00 1.1286774175409284e+00 1 1 1
526 1 2.8857426874643024e+00 3.7645909595571783e+00 3.2487292290899467e-01 0 0 0
194 1 2.8298258037557420e+00 3.2691284404102152e+00 1.3124227930394494e+00 0 0 1
666 1 4.5209815303991139e+00 3.9166204312908541e+00 9.7428778920652881e-01 0 0 1
4298 2 3.5365211353033628e+00 3.6849381137168087e+00 1.0056447929266974e+00 1 0 0
2541 1 3.3833712098384678e+00 4.6407271219731028e+00 9.0510460932920245e-01 1 0 1
2449 1 6.9858579768859661e+00 1.1082337956288407e-01 1.9870405403717410e+00 0 1 1
2469 1 9.5014158063092964e+00 1.9003412503547248e+00 1.1223591541606903e+00 0 0 1
660 1 9.5761283113876896e+00 1.0328611651498638e+00 1.9765118594567310e+00 0 0 0
90 1 5.1923902459453908e+00 4.6914210753424683e+00 8.3550523436194690e-01 0 0 0
92 1 5.5302653884688819e+00 3.6300511278219494e+00 1.0076803010229627e+00 0 0 1
2272 1 6.5270593507338113e+00 3.9134640024468728e+00 5.2171494622201831e-01 0 0 1
4262 2 6.3680695928000430e+00 3.5847393678025532e+00 1.2929247637498293e+00 0 0 -1
15 1 6.0634336943429830e+00 4.3945601750271095e+00 1.5053266677891610e+00 0 0 0
3788 2 5.5773519111870371e+00 3.2750825278997007e+00 1.3421777594947618e-01 0 0 1
3907 2 6.8997385469605801e+00 3.1885926956693660e+00 2.7286111856806788e-01 0 0 -1
622 1 3.4731250508746867e+00 2.0923414946561998e+00 2.0140823115882181e-01 0 0 0
872 1 7.7254969313898574e+00 4.0961116297953746e+00 5.2414258586786744e-01 0 1 1
2154 1 7.2178118018252144e+00 4.0540155700802822e+00 1.5163022859654192e+00 0 0 0
990 1 7.9217482459007247e+00 4.8619086875374320e+00 1.2875478361364434e+00 0 0 0
1291 1 1.2148677010825664e+00 7.4515870349934374e+00 4.8187593949807166e+00 0 0 0
1532 1 9.0632261368948086e+00 3.8839026614879120e+00 9.3613041979336653e-01 0 0 0
3347 1 8.6370205410990959e+00 4.6774446189093908e+00 4.0846554630909487e-01 0 1 -1
3642 2 8.8518973142974158e+00 4.7033162176602614e+00 1.2137669662776684e+00 -2 0 0
808 1 6.3778154635932696e+00 2.8151674477440309e+00 4.7010141927686000e+00 0 1 0
2704 1 6.3743284151170154e-01 5.1659529463481340e+00 2.0675928139048674e-01 1 0 0
1254 1 1.4665388067064145e+00 5.1343396016837168e+00 8.7317329542055011e-01 0 1 0
2139 1 1.1070004320063780e+00 6.1537922546978354e+00 4.3722045420519634e-01 0 0 1
4261 2 6.7084112374225613e-01 5.5541914757905104e+00 1.0859628237086774e+00 1 0 0
561 1 1.2573548750295140e+00 6.0507578661123143e+00 1.5056557880998134e+00 0 0 0
2988 1 2.4751180747709784e+00 5.0102549554174853e+00 4.3984415035153057e-01 1 0 0
115 1 2.0984458321602553e+00 5.9072724855740635e+00 9.9532869724059103e-01 0 0 0
509 1 2.5354392119978550e+00 5.0004493911016352e+00 1.4984128221652999e+00 0 0 0
4161 2 2.9091242633165737e+00 5.5569834485214988e+00 9.8527135290677381e-01 1 0 -2
1793 1 3.0355970491875963e+00 6.4869809176924651e+00 8.2361392761849828e-01 0 0 0
268 1 3.9104095155152621e+00 5.8039008008563275e+00 1.0296176326318625e+00 0 1 0
1707 1 4.2381166939954644e+00 5.0513512968187975e+00 3.9661202944391805e-01 0 0 1
3325 1 4.4345031877013641e+00 5.1090728264446721e+00 1.5452933449770436e+00 0 0 0
1625 1 3.3504645783829274e+00 5.5538845971221731e+00 1.3372948480878735e-01 0 0 1
1816 1 4.9640098352011028e+00 5.8614193639982490e+00 5.1337041480177092e-01 0 0 0
803 1 5.9757067055398148e+00 5.4306253394449264e+00 1.0294791196620607e+00 0 1 1
1718 1 5.7866973625712772e+00 6.2279581171403660e+00 1.1813620695714454e-01 0 0 0
3497 2 8.2256546735781662e+00 9.5412972798090152e+00 1.4170717867125415e+00 -1 0 0
2762 1 6.8801191480390305e+00 4.9099011046365648e+00 9.8793415406222507e-01 0 0 0
1119 1 6.8210632485415443e+00 5.7996159121588953e+00 3.0008776929768655e-01 0 0 0
1185 1 6.9100549243728002e+00 5.9421292680569664e+00 1.3346683762547884e+00 0 0 1
1112 1 8.6943381187080551e+00 6.3442163089171597e-02 1.7761963050564245e+00 0 0 1
911 1 7.8183229224655104e+00 5.9059154869897803e+00 8.4980456116813408e-01 0 0 0
3107 1 8.8199042424147471e+00 5.5169917728210462e+00 1.0043768392400776e+00 0 0 0
3616 2 6.9244816375260019e+00 9.5554689558669832e+00 4.5923020453516781e+00 0 0 1
218 1 9.0399672412148178e+00 6.3804609403591170e+00 4.7258900166132162e-01 0 0 1
46 1 6.2093182746066953e+00 9.1868019552205027e+00 3.2445897212683592e+00 0 0 0
2930 1 4.6701353956765818e-01 6.7287479322770167e+00 1.3551726816597187e+00 1 0 0
3321 1 1.3904736455818649e+00 7.1560974917016571e+00 1.2612088992700470e+00 1 0 1
461 1 7.2791581155319973e-01 7.8516511816514676e+00 5.9588185986555198e-01 0 0 0
1744 1 2.0347039769554027e+00 6.8491078716087097e+00 4.9552411475468505e-01 0 0 0
4258 2 2.2462170134356114e+00 7.4513147399060120e+00 1.1091192928057803e+00 0 0 1
984 1 7.1226427851106120e+00 1.9814777896166982e+00 4.8035758867407221e+00 0 0 -1
250 1 2.3923131460923313e+00 6.7843752201678464e+00 1.7113807934640406e+00 0 0 0
1462 1 2.8936231325392030e+00 7.8207247324253020e+00 5.5612207044760065e-01 0 0 1
615 1 4.0577206481646746e+00 6.5355468465593507e+00 2.1322387621339631e-01 0 0 0
851 1 7.6176613238786413e+00 3.4335094268536009e-02 2.9747504006532290e+00 0 1 0
157 1 3.9568974643647659e+00 7.5698585863593690e+00 3.4294648684404672e-01 0 0 1
232 1 4.6988383813306971e+00 6.8829306797778145e+00 9.8691807287921396e-01 0 0 1
3838 2 3.8171966606048646e+00 6.8941859747127117e+00 9.1986478746322398e-01 1 0 1
562 1 4.3172752770646330e+00 7.7509949775778377e+00 1.4556420273062056e+00 0 0 0
179 1 5.4653756398078182e+00 7.6164425605129011e+00 1.3652028460509380e+00 0 0 1
710 1 5.6876560416947193e+00 7.2499265585639687e+00 3.8578208304074663e-01 0 0 1
246 1 5.6427490798118134e+00 6.5062268442523399e+00 1.1517833284219250e+00 0 1 0
4059 2 6.2030178292383757e+00 7.0997137746165935e+00 1.3511943888550020e+00 0 0 2
2521 1 9.6205698288162971e+00 7.0808472634771169e+00 2.2207272111158076e+00 0 0 0
3711 2 7.5163070250935657e+00 6.6825525254836950e+00 1.1862619913864385e+00 0 0 1
111 1 6.7607180260037874e+00 6.8710584977155742e+00 6.5364703501655674e-01 0 0 0
1518 1 7.5428442629862449e+00 7.4946910584359747e+00 7.9819612243963367e-01 0 0 1
678 1 6.5493610019939643e+00 7.8318089662583708e+00 1.0171924987834544e+00 0 0 1
645 1 8.4581383164655488e+00 7.3473151018678475e+00 2.6435148375372203e-01 0 0 0
1794 1 9.3893397742241085e+00 7.2862753186727511e+00 1.0596087903358316e+00 0 0 0
1465 1 8.4392950914947988e+00 7.8006647657923240e+00 1.2196936181497604e+00 0 0 1
1993 1 8.3728464215526976e+00 6.7427577868703281e+00 1.1109303229004663e+00 0 0 1
3599 2 1.3731703909833368e+00 8.5327928702647231e+00 3.4887032864535883e-01 0 0 2
2961 1 1.5331718807903052e+00 8.2212171746977969e+00 1.2173738274093129e+00 1 0 -1
698 1 1.4555426480870399e+00 9.2667561783219305e+00 8.2061455063771038e-01 0 0 1
412 1 5.9542647061318821e-01 8.9153267028503986e+00 3.1581747893644474e-01 0 0 0
1290 1 7.1430128036890572e-01 8.7711185994953134e+00 1.3696199043111794e+00 0 0 1
234 1 1.7299798882856878e+00 1.1246923292986406e+00 7.3094283444377614e-02 0 0 1
571 1 2.3008632523798025e+00 8.7583139520873914e+00 5.3463598947308044e-01 0 0 0
4175 2 2.0594193154428511e+00 8.9141324460243183e+00 1.3855141822517092e+00 1 0 1
871 1 3.0149650119803395e+00 9.4375131348286949e+00 6.0550012021285693e-01 0 0 1
916 1 7.8112176308185965e+00 8.2041551480958894e+00 4.0364642065572092e+00 0 0 0
527 1 4.5937454687943804e+00 8.3598465942807962e+00 6.0403730013895829e-01 0 0 0
3295 1 3.5758113898125119e+00 8.4668223378564456e+00 1.0604113921492022e+00 1 1 0
1753 1 4.0813480166817557e+00 9.3385431025388606e+00 4.2486247090655471e-01 0 0 0
1057 1 4.1979276606806044e+00 9.1139316317855812e+00 1.4870398482218519e+00 0 0 0
2528 1 5.1115550579024163e+00 9.3103507320504058e+00 6.3089664564454861e-01 1 0 0
1589 1 5.1810288140227518e+00 8.6274523434185824e+00 1.4208806852750417e+00 0 0 0
1095 1 5.9557828754599331e+00 9.4765739107971889e+00 1.3616232555969709e+00 0 0 0
4192 2 6.1057237582150332e+00 8.5889362824040152e+00 1.3976798030318232e+00 1 1 1
754 1 5.8369908498276173e+00 8.3850485193856024e+00 5.7142923532498180e-01 0 0 0
1101 1 5.6574720078378355e+00 8.2350903861719082e+00 4.3083017332484923e+00 0 0 0
3484 2 7.0471573195990871e+00 8.2361498914402560e+00 4.4092015740017992e-01 0 0 -1
2818 1 6.6946664589100031e+00 8.9302262142991395e+00 7.6658859411485936e-01 0 0 1
1592 1 7.5654820463349886e+00 8.5620940345520715e+00 1.1902516917204367e+00 0 0 0
2156 1 7.9761749360722627e+00 8.3026150978359787e+00 2.5509708319306079e-01 0 0 1
4092 2 6.9395926486232007e+00 9.4809080063961755e+00 1.4926435639411044e+00 1 0 -2
106 1 6.2588481491927626e+00 4.8483150972983298e+00 1.2047578649468912e-01 0 0 0
3475 2 8.3803261133749771e+00 8.5770955161391029e+00 1.5208994628740886e+00 0 0 -2
1157 1 2.4673625705470004e+00 4.4166661018225613e+00 4.7626867506023949e+00 0 0 1
1368 1 9.1580519264689659e+00 8.1740540157443764e+00 4.3309072059364184e-01 0 0 1
1345 1 9.2254336351739585e+00 8.6089094985852928e+00 1.4780490570524589e+00 0 0 -1
1689 1 8.5132067205910165e+00 9.0104221364868842e+00 7.7788876465672707e-01 0 0 0
4039 2 1.2213814118418140e+00 3.1188992258183523e+00 4.5756277847670228e+00 0 1 -1
3099 1 1.2943283444224434e+00 5.3202437484182041e-01 2.8420762846409851e+00 1 0 0
3231 1 8.5574115270627449e-01 6.1699242340194982e-01 1.8620301403635178e+00 1 1 1
121 1 5.1589339089994024e-01 1.3402089468192264e+00 2.5603237492952604e+00 0 0 0
2167 1 1.4181246690196780e+00 1.5086070476886748e+00 3.0784157298149499e+00 0 0 1
1132 1 9.4812365493888446e+00 5.3464193247730227e+00 6.5303883721888917e-02 0 0 0
1344 1 1.9403084612377330e+00 7.3970091491004031e-01 1.8666198248183403e+00 0 1 0
952 1 2.3055824276682948e+00 8.5193606738758410e-01 2.8883894337783658e+00 0 1 1
1901 1 2.3946561216620390e+00 1.7277530937194614e+00 1.8547395542716272e+00 0 1 1
943 1 7.5954465087809018e+00 9.5324917876098070e+00 6.7653627044142350e-01 0 0 1
3765 2 3.0922517393087552e+00 6.0163712971015759e-01 2.9364842156390178e+00 0 1 0
172 1 9.1061280396681763e+00 3.5035882907221674e+00 4.6399508970374281e+00 0 0 1
2210 1 3.6814655387201167e+00 6.4228976530548654e-01 2.2487885304637363e+00 0 1 0
2630 1 4.2763172546185695e+00 1.3217105326891965e+00 2.8684796633132832e+00 0 0 1
3719 2 4.4852040905139319e+00 5.3885317471570027e-01 2.6573387125921926e+00 0 1 -1
247 1 3.9508864183221246e+00 1.5931346870714320e+00 1.8507279898537439e+00 0 1 0
336 1 3.8934073695222415e+00 3.7318022946149493e-01 3.3360975169879841e+00 0 1 0
1661 1 4.7373187256396987e+00 8.5297203745864847e-01 1.7877671229962100e+00 0 0 1
392 1 5.3088478701787203e+00 3.3147832232159236e-01 2.4635481313153353e+00 0 1 0
1651 1 5.7003918299374430e+00 1.1611538004979804e+00 1.6581474388294062e+00 0 0 1
567 1 5.4052319273441256e+00 1.3206674775655678e+00 2.8873130165994794e+00 0 0 1
881 1 4.2505645397408376e+00 9.4801008857372224e+00 4.3412105112576640e+00 0 1 0
2088 1 6.7270893714622666e+00 1.1362038226188356e+00 1.6346030441265509e+00 0 0 0
774 1 6.2825242382113951e+00 8.2387044327113634e-01 2.5720616850107083e+00 0 1 0
1839 1 7.4079371520260171e+00 1.0453245391905193e+00 2.4998790499807972e+00 0 1 0
830 1 9.4818314270049857e+00 2.3849914096727223e+00 3.0812023748661534e+00 0 1 0
736 1 8.3228305856421674e+00 9.1916109927434455e+00 3.9622840851198720e+00 0 0 0
2645 1 8.3886851673636720e+00 9.8269072244662592e-01 2.2045220483655923e+00 0 0 1
1121 1 9.0430173208478521e+00 3.4495107150960058e-01 2.8360591171622285e+00 0 0 1
4110 2 7.4653005068857246e+00 8.0061178104837776e+00 3.2394186468814543e+00 1 -1 0
2480 1 9.1471488071324352e+00 1.3500518704017104e+00 2.9027743909136632e+00 0 0 1
913 1 2.7530356603581705e+00 1.7768852664776175e-01 2.2339948814261583e+00 0 1 0
3429 1 1.3675265422592153e+00 1.7356334122580306e+00 2.0898608603897819e+00 1 1 1
2753 1 1.5237666463948210e+00 2.6167900299997955e+00 2.8261912038337287e+00 1 1 0
3055 1 5.3408302551292186e-01 2.3962301166838551e+00 2.2779233915363002e+00 1 0 1
3079 1 2.3550956359820119e+00 2.0282733300241746e+00 2.8297670014961200e+00 1 0 1
3036 1 2.4096414141495073e+00 2.9063521527265319e+00 2.2472334348255267e+00 1 0 0
733 1 3.2167633976738772e+00 2.3775566088556950e+00 1.7662785280907394e+00 0 0 1
1470 1 3.2727508131125584e+00 2.7903339831598357e+00 2.8327690863407882e+00 0 1 1
3552 2 3.1661632488908640e+00 3.2909012630354457e+00 2.0571294358695229e+00 0 1 -1
93 1 3.2130971708332288e+00 1.6464759887747666e+00 2.5236892767043972e+00 0 0 0
1502 1 4.1118945293086826e+00 2.4841312104503457e+00 2.3789728635018137e+00 0 0 0
949 1 4.9889994838494349e+00 1.8418606723712427e+00 2.1217360062021302e+00 0 1 0
2029 1 5.2889248542232004e+00 2.7151156802920897e+00 2.6166073887489194e+00 0 0 0
1339 1 6.1420565827919589e+00 1.9284998929617150e+00 2.3424889759969600e+00 0 0 0
119 1 6.2786430758634406e+00 2.8920698214750864e+00 2.7983961384251832e+00 0 0 0
152 1 6.7627714187644816e+00 2.1977922763750177e+00 1.5174698412275125e+00 0 0 1
756 1 7.7082619106453203e+00 1.7074306620210229e+00 1.7805762916776853e+00 0 0 1
2195 1 6.8890438031638279e+00 1.7428306991293963e+00 3.0463921641298501e+00 0 0 0
2038 1 7.2709187740528183e+00 2.5299251419421114e+00 2.5841379743039630e+00 0 0 0
1296 1 7.9855775746971531e+00 2.8418586527610232e+00 1.8274118595211037e+00 0 1 0
217 1 6.7849550951338671e+00 3.1461623472501987e+00 1.9218052102237477e+00 0 0 1
598 1 8.1424981154144174e+00 1.8736564893059220e+00 2.7873630856211196e+00 0 0 0
2051 1 9.0579006913750835e+00 2.9965168909216828e+00 1.6372375213273862e+00 0 0 0
16 1 9.0639282987923657e+00 2.1324830627373119e+00 2.1929884951144167e+00 -1 0 0
1990 1 8.6157529439591567e+00 2.8599470385835386e+00 2.7121524570979560e+00 0 0 0
220 1 1.3764331114559760e+00 3.1142412615520150e+00 1.9235887808673733e+00 0 0 0
1137 1 6.7496874755102554e-01 3.3909130777991976e+00 2.6801274742435721e+00 0 0 0
4104 2 4.8831581058188261e-01 4.0570569459448267e+00 2.0975667338759383e+00 1 0 0
21 1 1.2830815893681382e+00 4.2857068810722261e+00 2.3519354618961352e+00 0 0 0
730 1 3.7761733066613884e-01 4.6592507825981384e+00 2.7394775703504219e+00 0 0 0
210 1 2.2057386339218845e+00 3.9340523258972011e+00 1.9222047160278337e+00 0 0 1
2898 1 1.8469055231480869e+00 3.5927032251431559e+00 2.9127412605998222e+00 1 1 0
306 1 2.1068168334820223e+00 4.5864397695444765e+00 2.9785011083336537e+00 0 1 0
3132 1 2.8310732108888739e+00 3.7831048147524617e+00 2.7771665386642508e+00 1 0 1
3508 2 2.7037399145037062e+00 4.6067379147277112e+00 2.3528478148406400e+00 0 -1 1
3979 2 4.1202606864184439e+00 4.1087467578658829e+00 1.7644155533555625e+00 1 1 1
112 1 3.2587267771200987e+00 4.1329991608580583e+00 1.8196001644034772e+00 0 0 0
213 1 3.8740179503957282e+00 3.5906774788161919e+00 2.4792273984604938e+00 0 0 1
2589 1 4.2553529899023514e+00 4.5753227283885929e+00 2.4420422139049651e+00 1 0 0
3174 1 3.3066592890735129e+00 4.6926993183147427e+00 2.9845422722748030e+00 1 0 1
1141 1 4.8542800416632756e+00 3.2309894913502419e+00 1.7049737198900454e+00 0 0 1
980 1 5.0469853186113358e+00 4.2927303108890387e+00 1.7699343574802249e+00 0 1 0
2345 1 4.9725847072471225e+00 3.6663078950372996e+00 2.7394401174189156e+00 0 1 0
3785 2 5.0372149972844475e+00 4.7947174839449911e+00 2.6279412576403414e+00 0 0 1
669 1 5.8425944429307366e+00 3.5066840470800917e+00 2.0879128357950130e+00 0 0 0
417 1 5.8835030158929786e+00 4.4961089921012922e+00 2.6188475767035237e+00 0 0 1
4259 2 5.8974542964521577e+00 3.6741789805524734e+00 3.0359855310924977e+00 0 0 -1
2421 1 8.3140201463711634e+00 3.9398796652708072e+00 1.5339327582582871e+00 0 1 1
538 1 7.6684694618652900e+00 3.6658284002033081e+00 2.4171222212945387e+00 0 0 0
2993 1 6.6720176216075240e+00 3.8856531621013382e+00 2.5529799352746219e+00 1 0 0
557 1 7.3979909547270202e+00 4.6744254599430217e+00 2.3222573440865850e+00 0 0 0
4027 2 6.7325967661816479e+00 4.7785266845121255e+00 2.8626085450939658e+00 0 1 0
1025 1 9.4657834442023798e+00 3.4356004595273513e+00 2.5742310389455629e+00 0 0 0
2131 1 9.1213628246812561e+00 4.3096405322854583e+00 2.1006324033555361e+00 0 0 0
3501 2 8.6685265997064782e+00 3.5726115118147148e+00 2.2031376635334299e+00 -1 -1 2
1712 1 8.5409472037592575e+00 4.0178712792914899e+00 2.9585823769324509e+00 0 0 0
3707 2 1.2199303816649478e+00 4.9714222252042113e+00 2.9410086562000810e+00 0 0 1
3278 1 1.4700062886355111e-01 5.8678938517652410e+00 1.7983198953617836e+00 1 0 1
3316 1 6.9856374916075403e-01 4.9345275643467259e+00 1.7326942666941165e+00 1 0 -1
2551 1 8.3401080108601089e-01 5.6956639696267732e+00 2.5906790984699377e+00 1 0 0
1397 1 9.5446715496606096e+00 9.2649807199346998e+00 5.4502412733640693e-01 0 0 1
431 1 2.6409153352890433e+00 6.5745254735300875e+00 2.7879255589574008e+00 0 0 0
746 1 1.6938208384479929e+00 5.2622679801984207e+00 2.1046800703708697e+00 0 0 1
3556 2 2.3067541141142227e+00 5.8340973135172183e+00 1.8752480499569573e+00 0 0 0
510 1 1.7379831447261558e+00 6.3261656617716193e+00 2.3475853825352408e+00 0 0 0
3201 1 2.6285605533363943e+00 5.4915841467338016e+00 2.6525498989856486e+00 1 0 0
83 1 3.0916008067794905e+00 6.0499813646786240e+00 1.7488580361345603e+00 0 0 0
650 1 4.8575793410493526e+00 6.0650548953155372e+00 1.5987990664832665e+00 0 0 0
3142 1 3.4503753261288712e+00 5.0959300436216228e+00 1.9789704829498507e+00 1 0 0
508 1 4.5981695583178768e+00 5.5806705393844247e+00 2.5344871807850047e+00 0 0 0
3619 2 3.8290901514987801e+00 5.3003565860813326e+00 2.7035225121324773e+00 0 1 0
206 1 3.6596762906068210e+00 6.1602967234472725e+00 2.6444237402430302e+00 0 0 0
4147 2 4.0618624946555588e+00 5.8528772306238555e+00 1.9843763157808219e+00 0 0 0
3395 1 5.5597391285958002e+00 6.5074080867156443e+00 3.1602503674343092e+00 1 0 0
488 1 5.3784393177190202e+00 5.4377259718789830e+00 3.1543608712320093e+00 0 0 0
3643 2 5.3702998439814742e+00 5.9745825866924243e+00 2.4876081851259508e+00 0 0 1
1161 1 6.3923281587550767e+00 5.5887589432939597e+00 2.9071444644481570e+00 0 0 1
2802 1 6.1171133014042471e+00 6.1111432902217402e+00 1.9477499464586721e+00 0 0 1
2178 1 5.4729086147671504e+00 5.2285331702636650e+00 1.9361405738208988e+00 0 0 0
3665 2 7.4204087401644081e+00 5.3362758152606187e+00 1.7675029304562280e+00 0 1 -1
1021 1 6.5859296230557662e+00 5.1846751364573649e+00 1.9669035856328911e+00 0 0 0
586 1 7.3472223021747673e+00 5.6482198950299445e+00 2.7319214134884109e+00 0 0 0
4154 2 7.0252274486067137e+00 6.1948846215340341e+00 2.1804121275054924e+00 1 1 0
1215 1 7.8450510985926165e+00 6.1950174210666802e+00 1.8051077571535501e+00 0 0 0
2677 1 8.3094802631761340e+00 5.9725455337396758e+00 2.8842086894726306e+00 0 0 0
4128 2 8.2360449903478194e+00 4.4847144216050037e+00 2.1933669061185905e+00 0 1 1
2230 1 9.2438862848501966e+00 6.3573572911304987e+00 1.6298106041692779e+00 0 0 0
2054 1 9.1144139729257958e+00 5.0235437114684363e+00 2.8535402085189383e+00 0 0 0
2093 1 8.3927249905424990e+00 5.3309703376121123e+00 2.0905357599984158e+00 0 0 1
2671 1 9.4675660226217229e+00 5.3567295743893411e+00 1.8327898797559512e+00 0 0 1
2946 1 9.3654384426873492e+00 6.0968727196914720e+00 2.6010349486090876e+00 0 0 -1
2881 1 6.5673645421789917e-01 7.8134094373409768e+00 1.6778742163083409e+00 1 0 0
4270 2 5.3928108228553717e-01 7.3100741683843644e+00 3.0524705703582278e+00 1 0 1
2745 1 9.5909840297772353e-01 7.0415475867834836e+00 2.3901857001944671e+00 1 0 -1
847 1 1.0709249279161654e+00 7.9755051321333230e+00 2.8414516483662298e+00 0 0 0
1284 1 3.3568167126391590e-01 2.4169319261457986e-01 2.7261807569651206e+00 0 1 0
976 1 1.7711462996421330e+00 7.6954860127398845e+00 2.0154644947328286e+00 0 0 0
3000 1 1.7831041861589332e+00 7.2855537206045549e+00 3.0005814600490810e+00 1 0 0
1414 1 2.7351596134999330e+00 7.5534990809718767e+00 2.4547225625332163e+00 0 0 0
2623 1 3.2657727525080382e+00 7.3953897262515929e+00 1.4355917152938769e+00 1 0 1
3722 2 3.1531394920967806e+00 6.8834254951123146e+00 2.0941202323460595e+00 0 1 2
1739 1 3.9390609601598769e+00 6.6681095918577657e+00 1.7484039344783049e+00 1 0 0
4304 2 4.9026734545605244e+00 7.0567520787717299e+00 1.7818577454136448e+00 1 1 0
1206 1 4.7172918092195424e+00 6.7226669365906666e+00 2.5551093945283516e+00 1 0 1
2950 1 3.8817740079104128e+00 7.4058607752190637e+00 2.5769907781176329e+00 1 1 0
712 1 4.4987673032574431e+00 8.1092671774019660e+00 3.1377108551549004e+00 0 0 1
44 1 5.0333665497622340e+00 7.8240315182767848e+00 2.3028685938352331e+00 0 0 0
3613 2 5.3461890340254739e+00 7.3487986009899595e+00 2.9197140231485026e+00 0 0 0
6 1 5.6944500047785596e+00 6.9660948732742805e+00 2.1981023349693394e+00 0 0 0
552 1 6.1779072784428148e+00 7.8735468914716504e+00 1.9980882709946153e+00 0 0 0
1228 1 6.1873635921324359e+00 7.6232302306386970e+00 2.9854885446054333e+00 0 0 1
4276 2 7.2261409025578045e+00 7.8397085469709102e+00 1.6354692544059133e+00 0 0 -1
3546 2 8.1197016280633356e+00 7.6353994246386288e+00 2.6021270663002793e+00 -1 0 0
1915 1 6.9115619205618328e+00 6.9487977701518382e+00 1.7883883173447870e+00 0 0 1
1595 1 7.9062045792228872e+00 7.2345278466753289e+00 1.8742578400896328e+00 0 0 0
715 1 6.5552598205004857e+00 6.6500153007911837e+00 2.7336198439815718e+00 0 0 0
2153 1 7.5787426788662087e+00 6.6925744488775196e+00 2.7166413926041031e+00 0 0 0
3112 1 7.1356453598764853e+00 7.6482955207378431e+00 2.5429615286862473e+00 0 0 1
4256 2 8.7991825870834148e+00 7.1331175186616766e+00 1.6903926712662294e+00 1 0 0
3493 2 3.7247270448013632e+00 8.5830535996045487e+00 4.6430097223140008e+00 0 0 -2
1582 1 8.5740541915137687e+00 6.8874749694013664e+00 2.5891133059811891e+00 0 0 0
2565 1 8.8941856259921259e+00 7.9121264906941171e+00 2.1162722696323937e+00 0 0 0
338 1 9.0965352410211082e+00 7.7264848086987810e+00 3.1274233237813034e+00 0 1 1
312 1 3.5804086497902450e+00 8.8603564010867242e+00 3.8471535942218509e+00 0 0 0
596 1 3.5643495983260536e+00 4.4910724418805037e+00 4.6517503330355296e+00 0 0 0
2804 1 1.8509337688464329e+00 8.7229312845870037e+00 2.2392456787986004e+00 1 0 0
3377 1 9.1039847357258064e-01 8.9918799707985890e+00 2.7245527636976767e+00 1 1 1
4102 2 4.3713217117668429e-01 8.3604028717182253e+00 2.3729555476595898e+00 1 0 0
1075 1 2.5894111945732372e+00 8.1569290359648221e+00 1.4294349554519064e+00 0 0 0
3928 2 4.8579819124034520e+00 7.5160197160391133e+00 4.7650009669832488e-01 0 0 0
2278 1 2.1640624705362308e+00 8.2557897976849119e+00 3.1837293462429672e+00 1 0 -1
4043 2 2.7386802276041893e+00 8.3744419245097621e+00 2.3217512186932936e+00 1 0 0
2989 1 3.2043451880496110e+00 8.1556173001914942e+00 3.1576137487025542e+00 1 0 0
1372 1 2.9523166319066290e+00 9.0217853982614411e+00 1.8479764255362587e+00 0 0 1
219 1 2.8767224688920119e+00 9.0681735744280072e+00 2.9233387386803491e+00 0 0 0
604 1 8.7536787920640169e+00 2.3293424647896410e+00 4.7498719313096522e+00 0 0 -1
1452 1 3.6061021654308796e+00 8.2891165838620022e+00 2.1598191257785300e+00 0 0 0
611 1 3.7756492009431035e+00 9.3614198054321704e+00 2.3821549221597800e+00 0 0 0
755 1 4.6974284887835935e+00 8.7869704506342483e+00 2.3257637136834104e+00 0 0 1
3964 2 3.7740559776397054e+00 8.7652150096961883e+00 2.9943502668365571e+00 1 0 -1
2379 1 1.4543888361701729e+00 1.1963305804453811e-01 3.3890338522319641e-01 1 1 1
4046 2 5.2323847210736609e+00 9.2832038260029446e+00 2.8130148684302032e+00 0 0 1
4140 2 6.4649750270428559e+00 8.4363825577863114e+00 2.7547331696223116e+00 1 -1 0
919 1 5.7934339500375858e+00 8.8846764430874856e+00 2.3261423596058606e+00 0 1 1
3465 2 1.7304548535304323e-01 5.7858692438362891e-01 1.3555550370337506e+00 0 0 0
1669 1 7.7990191952957693e+00 8.2771133231084164e+00 2.1368779344163746e+00 0 0 1
1695 1 7.7284632986537067e+00 9.3350206203739496e+00 2.0064958615601003e+00 0 0 0
1440 1 6.8496348142836618e+00 8.6265052797040624e+00 1.8964308500925369e+00 0 0 0
1411 1 7.2280805317299004e+00 8.7377900205239420e+00 2.8907515075342731e+00 0 0 1